# vtk DataFile Version 2.0
3D Unstructured Grid of Linear Triangles
ASCII
DATASET UNSTRUCTURED_GRID
FIELD FieldData  1
TIME 1 1 double
        1808.35491
POINTS     7056 float
      0.00000000E+00  1.00000000E+01  1.00000000E+00
      5.00000000E-01  1.00000000E+01  9.93333333E-01
      1.00000000E+00  1.00000000E+01  9.83333333E-01
      1.50000000E+00  1.00000000E+01  9.73333333E-01
      2.00000000E+00  1.00000000E+01  9.63333333E-01
      2.50000000E+00  1.00000000E+01  9.53333333E-01
      3.00000000E+00  1.00000000E+01  9.43333333E-01
      3.50000000E+00  1.00000000E+01  9.33333333E-01
      4.00000000E+00  1.00000000E+01  9.23333333E-01
      4.50000000E+00  1.00000000E+01  9.13333333E-01
      5.00000000E+00  1.00000000E+01  9.03333333E-01
      5.50000000E+00  1.00000000E+01  8.93333333E-01
      6.00000000E+00  1.00000000E+01  8.83333333E-01
      6.50000000E+00  1.00000000E+01  8.73333333E-01
      7.00000000E+00  1.00000000E+01  8.63333333E-01
      7.50000000E+00  1.00000000E+01  8.53333333E-01
      8.00000000E+00  1.00000000E+01  8.43333333E-01
      8.50000000E+00  1.00000000E+01  8.33333333E-01
      9.00000000E+00  1.00000000E+01  8.23333333E-01
      9.50000000E+00  1.00000000E+01  8.13333333E-01
      1.00000000E+01  1.00000000E+01  8.10000000E-01
      0.00000000E+00  9.50000000E+00  9.83333333E-01
      5.00000000E-01  9.50000000E+00  9.82500000E-01
      1.00000000E+00  9.50000000E+00  9.72500000E-01
      1.50000000E+00  9.50000000E+00  9.62500000E-01
      2.00000000E+00  9.50000000E+00  9.52500000E-01
      2.50000000E+00  9.50000000E+00  9.42500000E-01
      3.00000000E+00  9.50000000E+00  9.32500000E-01
      3.50000000E+00  9.50000000E+00  9.22500000E-01
      4.00000000E+00  9.50000000E+00  9.12500000E-01
      4.50000000E+00  9.50000000E+00  9.02500000E-01
      5.00000000E+00  9.50000000E+00  8.92500000E-01
      5.50000000E+00  9.50000000E+00  8.82500000E-01
      6.00000000E+00  9.50000000E+00  8.72500000E-01
      6.50000000E+00  9.50000000E+00  8.62500000E-01
      7.00000000E+00  9.50000000E+00  8.52500000E-01
      7.50000000E+00  9.50000000E+00  8.42500000E-01
      8.00000000E+00  9.50000000E+00  8.32500000E-01
      8.50000000E+00  9.50000000E+00  8.22500000E-01
      9.00000000E+00  9.50000000E+00  8.12500000E-01
      9.50000000E+00  9.50000000E+00  8.02500000E-01
      1.00000000E+01  9.50000000E+00  8.01666667E-01
      0.00000000E+00  9.00000000E+00  9.58333333E-01
      5.00000000E-01  9.00000000E+00  9.57500000E-01
      1.00000000E+00  9.00000000E+00  9.47500000E-01
      1.50000000E+00  9.00000000E+00  9.37500000E-01
      2.00000000E+00  9.00000000E+00  9.27500000E-01
      2.50000000E+00  9.00000000E+00  9.17500000E-01
      3.00000000E+00  9.00000000E+00  9.07500000E-01
      3.50000000E+00  9.00000000E+00  8.97500000E-01
      4.00000000E+00  9.00000000E+00  8.87500000E-01
      4.50000000E+00  9.00000000E+00  8.77500000E-01
      5.00000000E+00  9.00000000E+00  8.67500000E-01
      5.50000000E+00  9.00000000E+00  8.57500000E-01
      6.00000000E+00  9.00000000E+00  8.47500000E-01
      6.50000000E+00  9.00000000E+00  8.37500000E-01
      7.00000000E+00  9.00000000E+00  8.27500000E-01
      7.50000000E+00  9.00000000E+00  8.17500000E-01
      8.00000000E+00  9.00000000E+00  8.07500000E-01
      8.50000000E+00  9.00000000E+00  7.97500000E-01
      9.00000000E+00  9.00000000E+00  7.87500000E-01
      9.50000000E+00  9.00000000E+00  7.77500000E-01
      1.00000000E+01  9.00000000E+00  7.76666667E-01
      0.00000000E+00  8.50000000E+00  9.33333333E-01
      5.00000000E-01  8.50000000E+00  9.32500000E-01
      1.00000000E+00  8.50000000E+00  9.22500000E-01
      1.50000000E+00  8.50000000E+00  9.12500000E-01
      2.00000000E+00  8.50000000E+00  9.02500000E-01
      2.50000000E+00  8.50000000E+00  8.92500000E-01
      3.00000000E+00  8.50000000E+00  8.82500000E-01
      3.50000000E+00  8.50000000E+00  8.72500000E-01
      4.00000000E+00  8.50000000E+00  8.62500000E-01
      4.50000000E+00  8.50000000E+00  8.52500000E-01
      5.00000000E+00  8.50000000E+00  8.42500000E-01
      5.50000000E+00  8.50000000E+00  8.32500000E-01
      6.00000000E+00  8.50000000E+00  8.22500000E-01
      6.50000000E+00  8.50000000E+00  8.12500000E-01
      7.00000000E+00  8.50000000E+00  8.02500000E-01
      7.50000000E+00  8.50000000E+00  7.92500000E-01
      8.00000000E+00  8.50000000E+00  7.82500000E-01
      8.50000000E+00  8.50000000E+00  7.72500000E-01
      9.00000000E+00  8.50000000E+00  7.62500000E-01
      9.50000000E+00  8.50000000E+00  7.52500000E-01
      1.00000000E+01  8.50000000E+00  7.51666667E-01
      0.00000000E+00  8.00000000E+00  9.08333333E-01
      5.00000000E-01  8.00000000E+00  9.07500000E-01
      1.00000000E+00  8.00000000E+00  8.97500000E-01
      1.50000000E+00  8.00000000E+00  8.87500000E-01
      2.00000000E+00  8.00000000E+00  8.77500000E-01
      2.50000000E+00  8.00000000E+00  8.67500000E-01
      3.00000000E+00  8.00000000E+00  8.57500000E-01
      3.50000000E+00  8.00000000E+00  8.47500000E-01
      4.00000000E+00  8.00000000E+00  8.37500000E-01
      4.50000000E+00  8.00000000E+00  8.27500000E-01
      5.00000000E+00  8.00000000E+00  8.17500000E-01
      5.50000000E+00  8.00000000E+00  8.07500000E-01
      6.00000000E+00  8.00000000E+00  7.97500000E-01
      6.50000000E+00  8.00000000E+00  7.87500000E-01
      7.00000000E+00  8.00000000E+00  7.77500000E-01
      7.50000000E+00  8.00000000E+00  7.67500000E-01
      8.00000000E+00  8.00000000E+00  7.57500000E-01
      8.50000000E+00  8.00000000E+00  7.47500000E-01
      9.00000000E+00  8.00000000E+00  7.37500000E-01
      9.50000000E+00  8.00000000E+00  7.27500000E-01
      1.00000000E+01  8.00000000E+00  7.26666667E-01
      0.00000000E+00  7.50000000E+00  8.83333333E-01
      5.00000000E-01  7.50000000E+00  8.82500000E-01
      1.00000000E+00  7.50000000E+00  8.72500000E-01
      1.50000000E+00  7.50000000E+00  8.62500000E-01
      2.00000000E+00  7.50000000E+00  8.52500000E-01
      2.50000000E+00  7.50000000E+00  8.42500000E-01
      3.00000000E+00  7.50000000E+00  8.32500000E-01
      3.50000000E+00  7.50000000E+00  8.22500000E-01
      4.00000000E+00  7.50000000E+00  8.12500000E-01
      4.50000000E+00  7.50000000E+00  8.02500000E-01
      5.00000000E+00  7.50000000E+00  7.92500000E-01
      5.50000000E+00  7.50000000E+00  7.82500000E-01
      6.00000000E+00  7.50000000E+00  7.72500000E-01
      6.50000000E+00  7.50000000E+00  7.62500000E-01
      7.00000000E+00  7.50000000E+00  7.52500000E-01
      7.50000000E+00  7.50000000E+00  7.42500000E-01
      8.00000000E+00  7.50000000E+00  7.32500000E-01
      8.50000000E+00  7.50000000E+00  7.22500000E-01
      9.00000000E+00  7.50000000E+00  7.12500000E-01
      9.50000000E+00  7.50000000E+00  7.02500000E-01
      1.00000000E+01  7.50000000E+00  7.01666667E-01
      0.00000000E+00  7.00000000E+00  8.58333333E-01
      5.00000000E-01  7.00000000E+00  8.57500000E-01
      1.00000000E+00  7.00000000E+00  8.47500000E-01
      1.50000000E+00  7.00000000E+00  8.37500000E-01
      2.00000000E+00  7.00000000E+00  8.27500000E-01
      2.50000000E+00  7.00000000E+00  8.17500000E-01
      3.00000000E+00  7.00000000E+00  8.07500000E-01
      3.50000000E+00  7.00000000E+00  7.97500000E-01
      4.00000000E+00  7.00000000E+00  7.87500000E-01
      4.50000000E+00  7.00000000E+00  7.77500000E-01
      5.00000000E+00  7.00000000E+00  7.67500000E-01
      5.50000000E+00  7.00000000E+00  7.57500000E-01
      6.00000000E+00  7.00000000E+00  7.47500000E-01
      6.50000000E+00  7.00000000E+00  7.37500000E-01
      7.00000000E+00  7.00000000E+00  7.27500000E-01
      7.50000000E+00  7.00000000E+00  7.17500000E-01
      8.00000000E+00  7.00000000E+00  7.07500000E-01
      8.50000000E+00  7.00000000E+00  6.97500000E-01
      9.00000000E+00  7.00000000E+00  6.87500000E-01
      9.50000000E+00  7.00000000E+00  6.77500000E-01
      1.00000000E+01  7.00000000E+00  6.76666667E-01
      0.00000000E+00  6.50000000E+00  8.33333333E-01
      5.00000000E-01  6.50000000E+00  8.32500000E-01
      1.00000000E+00  6.50000000E+00  8.22500000E-01
      1.50000000E+00  6.50000000E+00  8.12500000E-01
      2.00000000E+00  6.50000000E+00  8.02500000E-01
      2.50000000E+00  6.50000000E+00  7.92500000E-01
      3.00000000E+00  6.50000000E+00  7.82500000E-01
      3.50000000E+00  6.50000000E+00  7.72500000E-01
      4.00000000E+00  6.50000000E+00  7.62500000E-01
      4.50000000E+00  6.50000000E+00  7.52500000E-01
      5.00000000E+00  6.50000000E+00  7.42500000E-01
      5.50000000E+00  6.50000000E+00  7.32500000E-01
      6.00000000E+00  6.50000000E+00  7.22500000E-01
      6.50000000E+00  6.50000000E+00  7.12500000E-01
      7.00000000E+00  6.50000000E+00  7.02500000E-01
      7.50000000E+00  6.50000000E+00  6.92500000E-01
      8.00000000E+00  6.50000000E+00  6.82500000E-01
      8.50000000E+00  6.50000000E+00  6.72500000E-01
      9.00000000E+00  6.50000000E+00  6.62500000E-01
      9.50000000E+00  6.50000000E+00  6.52500000E-01
      1.00000000E+01  6.50000000E+00  6.51666667E-01
      0.00000000E+00  6.00000000E+00  8.08333333E-01
      5.00000000E-01  6.00000000E+00  8.07500000E-01
      1.00000000E+00  6.00000000E+00  7.97500000E-01
      1.50000000E+00  6.00000000E+00  7.87500000E-01
      2.00000000E+00  6.00000000E+00  7.77500000E-01
      2.50000000E+00  6.00000000E+00  7.67500000E-01
      3.00000000E+00  6.00000000E+00  7.57500000E-01
      3.50000000E+00  6.00000000E+00  7.47500000E-01
      4.00000000E+00  6.00000000E+00  7.37500000E-01
      4.50000000E+00  6.00000000E+00  7.27500000E-01
      5.00000000E+00  6.00000000E+00  7.17500000E-01
      5.50000000E+00  6.00000000E+00  7.07500000E-01
      6.00000000E+00  6.00000000E+00  6.97500000E-01
      6.50000000E+00  6.00000000E+00  6.87500000E-01
      7.00000000E+00  6.00000000E+00  6.77500000E-01
      7.50000000E+00  6.00000000E+00  6.67500000E-01
      8.00000000E+00  6.00000000E+00  6.57500000E-01
[...]
POINT_DATA     7056
SCALARS pressure float
LOOKUP_TABLE default
  -9.3068030291197187E-002
  -9.2075466107236478E-002
  -9.1577249161234525E-002
  -9.1267805155747991E-002
  -9.0970707460545419E-002
  -9.0702155910469054E-002
  -9.0463944973195307E-002
  -9.0246598134897979E-002
  -9.0026031613587909E-002
  -8.9805637171067501E-002
  -8.9582864972252513E-002
  -8.9336058482776939E-002
  -8.9052257305740914E-002
  -8.8712266764482267E-002
  -8.8285417330766461E-002
  -8.7722583448260893E-002
  -8.6968028806117134E-002
  -8.5910584493807091E-002
  -8.4504651501306649E-002
  -8.1134835445385814E-002
  -8.0000167142988673E-002
  -9.1135198193841901E-002
  -9.0922794763973427E-002
  -8.9724278904816157E-002
  -8.9470127205800165E-002
  -8.9142505404089412E-002
  -8.8834600345467918E-002
  -8.8546789950142535E-002
  -8.8266772250112369E-002
  -8.7993966815503130E-002
  -8.7713051371178838E-002
  -8.7418296993821601E-002
  -8.7088940230921022E-002
  -8.6706531430188430E-002
  -8.6247931888983567E-002
  -8.5677816163427220E-002
  -8.4942294228234266E-002
  -8.3961917406640774E-002
  -8.2586898302985295E-002
  -8.0638781873635740E-002
  -7.6628654988849368E-002
  -7.6533620695737631E-002
  -8.9216097522103355E-002
  -8.8769881347958546E-002
  -8.6963579676996500E-002
  -8.6396126242491517E-002
  -8.5725007277988333E-002
  -8.5115223251395172E-002
  -8.4548021540428342E-002
  -8.4003839771430680E-002
  -8.3475376557848591E-002
  -8.2942526385520757E-002
  -8.2389334564483094E-002
  -8.1785158989916812E-002
  -8.1097708159464751E-002
  -8.0279916783951022E-002
  -7.9263064088045773E-002
  -7.7946566347286930E-002
  -7.6172790379215996E-002
  -7.3737482144599020E-002
  -7.0556039936126080E-002
  -6.5651958680907008E-002
  -6.5335009744271713E-002
  -8.7375486888527462E-002
  -8.7235193635742225E-002
  -8.4962061900660843E-002
  -8.3993008485840209E-002
  -8.2969118284164367E-002
  -8.2031345372075820E-002
  -8.1151863631579876E-002
  -8.0304725996764928E-002
  -7.9465998457266485E-002
  -7.8607662569404893E-002
  -7.7695128749444189E-002
  -7.6681463289297883E-002
  -7.5513158043292394E-002
  -7.4120412020723253E-002
  -7.2444887342398692E-002
  -7.0430822706642512E-002
  -6.7957403814809678E-002
  -6.4869041901036234E-002
  -6.0990962068891125E-002
  -5.5158502262058477E-002
  -5.4844476317579494E-002
  -8.5294238742738684E-002
  -8.5293486991340886E-002
  -8.2545448410106984E-002
  -8.1145875188915126E-002
  -7.9735945515374954E-002
  -7.8407594201489655E-002
  -7.7124297723443161E-002
  -7.5857270256589462E-002
  -7.4578336740709003E-002
  -7.3265052103430664E-002
  -7.1904381629036562E-002
  -7.0471840862910959E-002
  -6.8910656569429476E-002
  -6.7149256268592583E-002
  -6.5103817102693737E-002
  -6.2672002529641349E-002
  -5.9703590237780338E-002
  -5.5730691947646578E-002
  -5.0378529574663281E-002
  -4.3638819237993551E-002
  -4.3382768884644519E-002
  -8.3004311452592586E-002
  -8.3091517824766703E-002
  -7.9888818755780758E-002
  -7.7976662697179830E-002
  -7.6050781352014096E-002
  -7.4190607094409583E-002
  -7.2395957622895218E-002
  -7.0697931204229209E-002
  -6.9075534604435912E-002
  -6.7480568281560890E-002
  -6.5861673734217738E-002
  -6.4157306331042052E-002
  -6.2299202168400007E-002
  -6.0199553623241135E-002
  -5.7683706260065408E-002
  -5.4348707581625494E-002
  -5.0325470153588542E-002
  -4.5613747222548962E-002
  -4.0110308653023383E-002
  -3.3410870793922305E-002
  -3.3221650932392967E-002
  -8.0501681899298322E-002
  -8.0618075955619845E-002
  -7.6878249198530910E-002
  -7.4303443734999031E-002
  -7.1789719858697948E-002
  -6.9503314926202736E-002
  -6.7410210655718478E-002
  -6.5453446925425277E-002
  -6.3572331799986045E-002
  -6.1707248448610322E-002
  -5.9790712252467286E-002
  -5.7699496138683908E-002
  -5.5186037357595578E-002
  -5.2285920620002743E-002
  -4.9078588890546199E-002
  -4.5451601018824533E-002
  -4.1317472522548714E-002
  -3.6699404127496747E-002
  -3.0591896251614951E-002
  -2.3169170306980114E-002
  -2.2954422246589695E-002
  -7.7647735551876651E-002
  -7.7753806225104985E-002
  -7.3357874641724316E-002
  -7.0202103448610387E-002
  -6.7350795641775027E-002
  -6.4777064244548876E-002
  -6.2395125846584285E-002
  -6.0128177291717710E-002
  -5.7868089491006004E-002
  -5.5400824443124247E-002
  -5.2764670719539657E-002
  -5.0086819097864548E-002
  -4.7304417562902226E-002
  -4.4333749599708892E-002
  -4.1078519848444968E-002
  -3.7504691267352210E-002
  -3.3117032895260898E-002
  -2.7670396516703340E-002
  -2.1404933572750483E-002
  -1.4329207109638437E-002
  -1.4268764871225598E-002
  -7.4252916247192768E-002
  -7.4350785761587615E-002
  -6.9501669764865159E-002
  -6.5983763805804674E-002
  -6.2810163371460601E-002
  -5.9881361986968626E-002
  -5.7014088341867400E-002
  -5.3965061747580680E-002
  -5.1030942139805080E-002
  -4.8242894901371382E-002
  -4.5548269602233966E-002
  -4.2849978547936207E-002
  -4.0057477141880987E-002
  -3.7148847380114626E-002
  -3.3684169028560945E-002
  -2.9515364020969981E-002
  -2.4786477151845569E-002
  -1.9451381536545999E-002
  -1.3015387806013433E-002
  -6.3499542361610687E-003
  -6.4519499020988377E-003
  -7.0485466607119462E-002
  -7.0569757968815955E-002
  -6.5453104796430780E-002
  -6.1547726637882327E-002
  -5.7898338264118054E-002
  -5.4092048336968609E-002
  -5.0496287214047864E-002
  -4.7246540928424501E-002
  -4.4286195150180466E-002
  -4.1496888759919991E-002
  -3.8814188350358325E-002
  -3.6188815804677019E-002
  -3.3063134843084645E-002
  -2.9648487132172479E-002
  -2.5954581869402246E-002
  -2.1891610598191023E-002
  -1.7513112876142951E-002
  -1.1799946617056384E-002
  -2.2701147537167589E-003
   1.6704732562966451E-004
   2.6665020268036138E-004
  -6.6479695412234807E-002
  -6.6481779106945235E-002
  -6.1057553004188948E-002
  -5.6473947365214876E-002
  -5.1790203009766500E-002
  -4.7636824796344943E-002
  -4.4005376765210318E-002
  -4.0763305123541364E-002
  -3.7839391987302087E-002
  -3.5033562659606721E-002
  -3.1909506849486555E-002
  -2.8807562025804218E-002
  -2.5655587722079376E-002
  -2.2377920713303107E-002
  -1.8960453212347305E-002
  -1.5074055755458841E-002
  -1.0690317708373502E-002
  -5.9301398256182093E-003
   2.1257124000150903E-004
   6.4909361115011673E-004
   8.1211117490231444E-004
  -6.2027139283474489E-002
  -6.1910873159833513E-002
  -5.5772383051239681E-002
  -5.0173031949567334E-002
  -4.5329820911190644E-002
  -4.1182764257744031E-002
  -3.7609110039092078E-002
  -3.4252192221099168E-002
  -3.0842052533012719E-002
  -2.7656517556119257E-002
  -2.4623527177447611E-002
  -2.1681134079470459E-002
  -1.8797742195689440E-002
  -1.5662132400809149E-002
  -1.2221103026795443E-002
  -8.3236403527661307E-003
  -4.6612059651345858E-003
   1.0347851805714975E-004
   6.2228610203161243E-004
   1.1560973955163020E-003
   1.2713320317931042E-003
  -5.6499217559973752E-002
  -5.6311985474428845E-002
  -4.9251783671484049E-002
  -4.3520210455333525E-002
  -3.8712557812453550E-002
  -3.4554684254131635E-002
  -3.0445734534915121E-002
  -2.6769693751042899E-002
  -2.3470653657223214E-002
  -2.0485004366183900E-002
  -1.7768395791675679E-002
  -1.4880352227145460E-002
  -1.1973515073416348E-002
  -8.8041456072683200E-003
  -5.7282888337114373E-003
   3.3245810446246129E-006
   1.4861489051216876E-004
   4.7090940739744937E-004
   1.0478443480366739E-003
   1.5548059818973772E-003
   1.6678603502083237E-003
  -4.9348811531348853E-002
  -4.9181871708584853E-002
  -4.2155656756347110E-002
  -3.6577569341150390E-002
  -3.1358360027663998E-002
  -2.6742049035549515E-002
  -2.2735884274216498E-002
  -1.9309270583705143E-002
  -1.6297405394330076E-002
  -1.3394908187911463E-002
  -1.0549496733018178E-002
  -7.8678170311936805E-003
  -5.4304412823378990E-003
  -1.0067458318836692E-003
   9.9809094677708930E-005
   2.8210803453625823E-004
   5.4706475563960676E-004
   8.9809931322632191E-004
   1.4274672309284807E-003
   1.9354277394501103E-003
   2.0654604374892786E-003
  -4.1622574166087292E-002
  -4.1415216922237930E-002
  -3.4515447905883428E-002
  -2.8284761049869208E-002
  -2.3005340485094870E-002
  -1.8747923510137515E-002
  -1.5000714733296205E-002
  -1.1493937014416932E-002
  -8.6397869197105733E-003
  -6.2901154011153334E-003
  -3.4067734939874240E-003
   4.5330504541629025E-005
   1.6858451539557840E-004
   3.0223851201462804E-004
   4.9537884792082371E-004
   7.3666434020269679E-004
   9.8726512239014530E-004
   1.2905994691983932E-003
   1.8056169908834282E-003
   2.2895397733320982E-003
   2.3974016267116816E-003
  -3.2914387928091052E-002
  -3.2770461283142101E-002
  -2.5239645493050553E-002
  -1.9289418841057945E-002
  -1.4282223131735898E-002
  -1.0148108412243326E-002
  -6.8811853949093862E-003
  -2.6738211263155486E-003
   7.0169829005692569E-005
   2.0210344778518746E-004
   3.1743476746211037E-004
   4.6782132701235615E-004
   6.5540475743896545E-004
   8.3672354637749787E-004
   1.0120018772966353E-003
   1.1994705234091797E-003
   1.4240168527966074E-003
   1.7156871344349632E-003
   2.2286410316093557E-003
   2.6203073453925883E-003
   2.6334799284950879E-003
  -2.2575357195667379E-002
  -2.2443986134388989E-002
  -1.4958022127214934E-002
  -9.6202524069255776E-003
  -4.2305935452226556E-003
   8.7917472422186527E-005
   2.6896309833297343E-004
   4.2357770173215715E-004
   6.0390287421535789E-004
   8.0301330672557570E-004
   9.7432068596177131E-004
   1.1235401193490267E-003
   1.2610704088272748E-003
   1.4003386063929034E-003
   1.5517469652199282E-003
   1.7267390246606428E-003
   1.9435809176509709E-003
   2.2294312533990370E-003
   2.7441400025817386E-003
   2.9949521315278445E-003
   2.8624326353659689E-003
  -1.1431605353933769E-002
  -1.1152368495139750E-002
   1.5821545361454397E-005
   2.5679988464785274E-004
   5.2863168262624644E-004
   7.9357271988920585E-004
   1.0708083158196347E-003
   1.2902592422621357E-003
   1.4606833016919062E-003
   1.6008497668962424E-003
   1.7270207923612440E-003
   1.8475922180780750E-003
   1.9689918975579835E-003
   2.0975219153013818E-003
   2.2408985863498951E-003
   2.4101175637034860E-003
   2.6232114769975676E-003
   2.9044796984787086E-003
   3.4240466006893525E-003
   3.4826685595702607E-003
   3.1496990189883584E-003
   3.8108534565067971E-004
   4.8727426104604833E-004
   8.9065876080208410E-004
   1.3977827212137148E-003
   1.8136726929470783E-003
   2.0981197189341560E-003
   2.3091041951043417E-003
   2.4780618849086929E-003
   2.6212227536198283E-003
   2.7482380909655615E-003
   2.8658746891728239E-003
   2.9798950376730116E-003
   3.0964069945759285E-003
   3.2217571964060403E-003
   3.3634330785025711E-003
   3.5320907135602013E-003
   3.7455803594693303E-003
   4.0271770823841558E-003
   4.5544953056380821E-003
   4.2821575740247938E-003
   3.6099016944362208E-003
   2.3362635465715162E-003
   2.7466681623581372E-003
   3.6836999445228583E-003
   4.4327372880060079E-003
   4.7179853056958541E-003
   4.7116244319756993E-003
   4.6350009889435800E-003
   4.5599136000839058E-003
   4.5051314737499645E-003
   4.4742940649345987E-003
   4.4669608526233910E-003
   4.4822003488434303E-003
   4.5198515358163514E-003
   4.5809567468393132E-003
   4.6680718623542151E-003
   4.7863042224605161E-003
   4.9460793274420586E-003
   5.1639841717750568E-003
   5.5510895247409273E-003
   5.5160374083826971E-003
   5.1799359613217098E-003
   5.6979688154528123E-003
   4.4597063599575550E-003
   5.6900205905936327E-003
   6.6078940532298472E-003
   6.8438458972357851E-003
   6.5758776039201074E-003
   6.2188072014441017E-003
   5.9013959746201218E-003
   5.6497995629682940E-003
   5.4617957754684735E-003
   5.3296202085552453E-003
   5.2458706387960869E-003
   5.2042848162286879E-003
   5.2004655084365095E-003
   5.2319365077577564E-003
   5.2982658539195617E-003
   5.4024780530585684E-003
   5.5538431711886979E-003
   5.7960973054264038E-003
   6.2123234015461996E-003
   4.9399362665428458E-003
  -8.7338440968602757E-002
  -8.6425552656346938E-002
  -8.5924892552046828E-002
  -8.5614155300250724E-002
  -8.5315896268157831E-002
  -8.5046231343743839E-002
  -8.4806916195262094E-002
  -8.4588409824737087E-002
  -8.4366759306654618E-002
  -8.4145152169701407E-002
  -8.3921037689010797E-002
  -8.3672702572855959E-002
  -8.3387052529117281E-002
  -8.3044675938798995E-002
  -8.2614497272985074E-002
  -8.2046694137940718E-002
  -8.1284185047753671E-002
  -8.0215362780737751E-002
  -7.8793812873252642E-002
  -7.5415840208260532E-002
  -7.4417589861278416E-002
  -8.5489626251323919E-002
  -8.5433293961808585E-002
  -8.4230440564489376E-002
  -8.3975975752735715E-002
  -8.3647410967096061E-002
  -8.3338240830244797E-002
  -8.3048946063194226E-002
  -8.2767204486010659E-002
  -8.2492420132784780E-002
  -8.2209126049473322E-002
  -8.1911497865618049E-002
  -8.1578579357671141E-002
  -8.1191477219413666E-002
  -8.0726483515267095E-002
  -8.0147424163579617E-002
  -7.9400096280301022E-002
  -7.8406020900565282E-002
  -7.7015851831354357E-002
  -7.5050658249009444E-002
  -7.1036582414013616E-002
  -7.1067829141454680E-002
  -8.3569252552404300E-002
  -8.3279790214699459E-002
  -8.1469150059399836E-002
  -8.0900153712780087E-002
  -8.0226727820039451E-002
  -7.9613659009909327E-002
  -7.9042337798477247E-002
  -7.8493160412166557E-002
  -7.7958873480262064E-002
  -7.7419571767193565E-002
  -7.6859570032865088E-002
  -7.6248337784161846E-002
  -7.5553413258957508E-002
  -7.4727612936315468E-002
  -7.3702191870451378E-002
  -7.2376552843852388E-002
  -7.0591964738706547E-002
  -6.8131905198601975E-002
  -6.4904047199719303E-002
  -5.9961348556827977E-002
  -5.9743996923283547E-002
  -8.1725855670359809E-002
  -8.1741029205435009E-002
  -7.9461883833900654E-002
  -7.8487107568671027E-002
  -7.7455906137869540E-002
  -7.6510044703460484E-002
  -7.5623207471921250E-002
  -7.4769403213970617E-002
  -7.3924474003862178E-002
  -7.3060278154396543E-002
  -7.2142023478927647E-002
  -7.1122197379714466E-002
  -6.9946165423102516E-002
  -6.8540218136175252E-002
  -6.6839225483017975E-002
  -6.4793903066681535E-002
  -6.2285886224118195E-002
  -5.9157959707067317E-002
  -5.5237811552551995E-002
  -4.9418826366194379E-002
  -4.9191920716009960E-002
  -7.9637927185348623E-002
  -7.9788909295141694E-002
  -7.7029109280360344E-002
  -7.5619365061376800E-002
  -7.4202018460131816E-002
  -7.2867428039008406E-002
  -7.1578604923956388E-002
  -7.0305690035687471E-002
  -6.9018698233117085E-002
  -6.7691539232855300E-002
  -6.6308976819197521E-002
  -6.4852550720803565E-002
  -6.3266822538947651E-002
  -6.1479527174862651E-002
  -5.9405617086224174E-002
  -5.6943269896251592E-002
  -5.3948268830138091E-002
  -4.9975245770530231E-002
  -4.4574770811199350E-002
  -3.7798789568076203E-002
  -3.7588847036145151E-002
  -7.7334372185371661E-002
  -7.7566929001413140E-002
  -7.4352813428712319E-002
  -7.2433579617840499E-002
  -7.0502181066212782E-002
  -6.8633147488723761E-002
  -6.6819304913479483E-002
  -6.5094385663399007E-002
  -6.3446405006956780E-002
  -6.1827034323689883E-002
  -6.0184616574489938E-002
  -5.8457216557756944E-002
  -5.6575847514034404E-002
  -5.4455380961556173E-002
  -5.1930297820953777E-002
  -4.8585402463298240E-002
  -4.4523405632959055E-002
  -3.9771507087411076E-002
  -3.4224146445916974E-002
  -2.7514825095487198E-002
  -2.7357118934576697E-002
  -7.4818214917605153E-002
  -7.5073134379057313E-002
  -7.1327005371797023E-002
  -6.8742973725844675E-002
  -6.6203113065530075E-002
  -6.3883365935753597E-002
  -6.1760123459245211E-002
  -5.9776780766703640E-002
  -5.7872123759862205E-002
  -5.5985422154628033E-002
  -5.4051396573563455E-002
  -5.1953290372238801E-002
  -4.9439209409507592E-002
  -4.6507493850721789E-002
  -4.3267399590467270E-002
  -3.9608135188470971E-002
  -3.5440802178046169E-002
  -3.0789360423644659E-002
  -2.4666546099582888E-002
  -1.7225421596721122E-002
  -1.7023554882751053E-002
  -7.1953487396027055E-002
  -7.2190121310160366E-002
  -6.7781266746536326E-002
  -6.4584987698973889E-002
  -6.1696068720423061E-002
  -5.9090641850463844E-002
  -5.6682495153258787E-002
  -5.4394959390819106E-002
  -5.2126374645371953E-002
  -4.9662039840582060E-002
  -4.6997444210908901E-002
  -4.4290130435214591E-002
  -4.1479202547600125E-002
  -3.8481099089990194E-002
  -3.5199655955468381E-002
  -3.1598828164170534E-002
  -2.7202165614035524E-002
  -2.1732578064517571E-002
  -1.5446324109384409E-002
  -8.3597283736705583E-003
  -8.3051719227504803E-003
  -6.8540138358833408E-002
  -6.8755892949117950E-002
  -6.3863176050785758E-002
  -6.0302805254092186E-002
  -5.7095967087989169E-002
  -5.4143466563305001E-002
  -5.1272958280934727E-002
  -4.8212097843378314E-002
  -4.5247209260923467E-002
  -4.2429630086692767E-002
  -3.9707932672614271E-002
  -3.6986374308037070E-002
  -3.4171134334706400E-002
  -3.1240750445401682E-002
  -2.7771685030635773E-002
  -2.3585005624630413E-002
  -1.8838523295649792E-002
  -1.3482485875623720E-002
  -7.0373218677179288E-003
  -3.6395491393057395E-004
  -4.6589700232662826E-004
  -6.4727447208870401E-002
  -6.4910520187603030E-002
  -5.9752869917356240E-002
  -5.5811802730868526E-002
  -5.2147539367721936E-002
  -4.8334197134789217E-002
  -4.4704613462601163E-002
  -4.1422247986339839E-002
  -3.8434852870079278E-002
  -3.5622979428655117E-002
  -3.2918678225645065E-002
  -3.0277582574453607E-002
  -2.7147878544552417E-002
  -2.3717556141579551E-002
  -2.0009244144928832E-002
  -1.5933870876614901E-002
  -1.1547375785667833E-002
  -5.8226662667917118E-003
   3.5715885191794309E-003
   6.1586986524537332E-003
   6.2366204104921325E-003
  -6.0677607808717768E-002
  -6.0760994890376181E-002
  -5.5303271861010354E-002
  -5.0717091673393111E-002
  -4.6001571187423845E-002
  -4.1811181323307738E-002
  -3.8148719490802382E-002
  -3.4881894489118305E-002
  -3.1936102149137065E-002
  -2.9128529245900984E-002
  -2.5989359015509188E-002
  -2.2873282412057123E-002
  -1.9708824231604711E-002
  -1.6420089716004310E-002
  -1.2992420314539291E-002
  -9.1017695563054887E-003
  -4.7117711590566299E-003
   5.4177288057493955E-005
   6.1593589858154954E-003
   6.7223137926974794E-003
   6.8553432688957848E-003
  -5.6188250584417079E-002
  -5.6133835157543638E-002
  -4.9998342681900537E-002
  -4.4357902043766100E-002
  -3.9477251083412643E-002
  -3.5300504718579727E-002
  -3.1701650856579992E-002
  -2.8340869478035973E-002
  -2.4915668501684144E-002
  -2.1717370080723063E-002
  -1.8673257647701051E-002
  -1.5720923715490040E-002
  -1.2828625504725629E-002
  -9.6890315413351996E-003
  -6.2404525510947563E-003
  -2.3400627035941781E-003
   1.3159770130628018E-003
   6.0449874655191457E-003
   6.6433916512767264E-003
   7.2707963685060533E-003
   7.3549579927157695E-003
  -5.0646380530020456E-002
  -5.0513115230554732E-002
  -4.3414451739620219E-002
  -3.7644704633071874E-002
  -3.2807232630268045E-002
  -2.8640446388096565E-002
  -2.4514627632476017E-002
  -2.0825200034480910E-002
  -1.7515443899608501E-002
  -1.4521145263033639E-002
  -1.1799923948897241E-002
  -8.9059135283560530E-003
  -5.9936378531298320E-003
  -2.8204363736335650E-003
   2.5729387104479892E-004
   5.9036209484613477E-003
   6.1193288578879484E-003
   6.4904548354489970E-003
   7.1072041350219743E-003
   7.7038375742686073E-003
   7.7843404640065795E-003
  -4.3448790940073999E-002
  -4.3317839281903144E-002
  -3.6261376112652378E-002
  -3.0653014639378955E-002
  -2.5424615343635524E-002
  -2.0793928889267968E-002
  -1.6776355641160999E-002
  -1.3340867684749735E-002
  -1.0324713664424563E-002
  -7.4179193032728116E-003
  -4.5684132060437388E-003
  -1.8829769374420094E-003
   5.5538309269107607E-004
   4.9115935357497802E-003
   6.0562631979992733E-003
   6.2845413793030987E-003
   6.5752013849689804E-003
   6.9547020538245404E-003
   7.5199934607381924E-003
   8.1154437851308006E-003
   8.2116239945634224E-003
  -3.5685282083406177E-002
  -3.5497842818916242E-002
  -2.8583553515304307E-002