# vtk DataFile Version 2.0
3D Unstructured Grid of Linear Triangles
ASCII
DATASET UNSTRUCTURED_GRID
FIELD FieldData  1
TIME 1 1 double
        1808.35491
POINTS     7056 float
          0.0000E+00      1.0000E+01      1.0000E+00
          5.0000E-01      1.0000E+01      9.9333E-01
          1.0000E+00      1.0000E+01      9.8333E-01
          1.5000E+00      1.0000E+01      9.7333E-01
          2.0000E+00      1.0000E+01      9.6333E-01
          2.5000E+00      1.0000E+01      9.5333E-01
          3.0000E+00      1.0000E+01      9.4333E-01
          3.5000E+00      1.0000E+01      9.3333E-01
          4.0000E+00      1.0000E+01      9.2333E-01
          4.5000E+00      1.0000E+01      9.1333E-01
          5.0000E+00      1.0000E+01      9.0333E-01
          5.5000E+00      1.0000E+01      8.9333E-01
          6.0000E+00      1.0000E+01      8.8333E-01
          6.5000E+00      1.0000E+01      8.7333E-01
          7.0000E+00      1.0000E+01      8.6333E-01
          7.5000E+00      1.0000E+01      8.5333E-01
          8.0000E+00      1.0000E+01      8.4333E-01
          8.5000E+00      1.0000E+01      8.3333E-01
          9.0000E+00      1.0000E+01      8.2333E-01
          9.5000E+00      1.0000E+01      8.1333E-01
          1.0000E+01      1.0000E+01      8.1000E-01
          0.0000E+00      9.5000E+00      9.8333E-01
          5.0000E-01      9.5000E+00      9.8250E-01
          1.0000E+00      9.5000E+00      9.7250E-01
          1.5000E+00      9.5000E+00      9.6250E-01
          2.0000E+00      9.5000E+00      9.5250E-01
          2.5000E+00      9.5000E+00      9.4250E-01
          3.0000E+00      9.5000E+00      9.3250E-01
          3.5000E+00      9.5000E+00      9.2250E-01
          4.0000E+00      9.5000E+00      9.1250E-01
          4.5000E+00      9.5000E+00      9.0250E-01
          5.0000E+00      9.5000E+00      8.9250E-01
          5.5000E+00      9.5000E+00      8.8250E-01
          6.0000E+00      9.5000E+00      8.7250E-01
          6.5000E+00      9.5000E+00      8.6250E-01
          7.0000E+00      9.5000E+00      8.5250E-01
          7.5000E+00      9.5000E+00      8.4250E-01
          8.0000E+00      9.5000E+00      8.3250E-01
          8.5000E+00      9.5000E+00      8.2250E-01
          9.0000E+00      9.5000E+00      8.1250E-01
          9.5000E+00      9.5000E+00      8.0250E-01
          1.0000E+01      9.5000E+00      8.0167E-01
          0.0000E+00      9.0000E+00      9.5833E-01
          5.0000E-01      9.0000E+00      9.5750E-01
          1.0000E+00      9.0000E+00      9.4750E-01
          1.5000E+00      9.0000E+00      9.3750E-01
          2.0000E+00      9.0000E+00      9.2750E-01
          2.5000E+00      9.0000E+00      9.1750E-01
          3.0000E+00      9.0000E+00      9.0750E-01
          3.5000E+00      9.0000E+00      8.9750E-01
          4.0000E+00      9.0000E+00      8.8750E-01
          4.5000E+00      9.0000E+00      8.7750E-01
          5.0000E+00      9.0000E+00      8.6750E-01
          5.5000E+00      9.0000E+00      8.5750E-01
          6.0000E+00      9.0000E+00      8.4750E-01
          6.5000E+00      9.0000E+00      8.3750E-01
          7.0000E+00      9.0000E+00      8.2750E-01
          7.5000E+00      9.0000E+00      8.1750E-01
          8.0000E+00      9.0000E+00      8.0750E-01
          8.5000E+00      9.0000E+00      7.9750E-01
          9.0000E+00      9.0000E+00      7.8750E-01
          9.5000E+00      9.0000E+00      7.7750E-01
          1.0000E+01      9.0000E+00      7.7667E-01
          0.0000E+00      8.5000E+00      9.3333E-01
          5.0000E-01      8.5000E+00      9.3250E-01
          1.0000E+00      8.5000E+00      9.2250E-01
          1.5000E+00      8.5000E+00      9.1250E-01
          2.0000E+00      8.5000E+00      9.0250E-01
          2.5000E+00      8.5000E+00      8.9250E-01
          3.0000E+00      8.5000E+00      8.8250E-01
          3.5000E+00      8.5000E+00      8.7250E-01
          4.0000E+00      8.5000E+00      8.6250E-01
          4.5000E+00      8.5000E+00      8.5250E-01
          5.0000E+00      8.5000E+00      8.4250E-01
          5.5000E+00      8.5000E+00      8.3250E-01
          6.0000E+00      8.5000E+00      8.2250E-01
          6.5000E+00      8.5000E+00      8.1250E-01
          7.0000E+00      8.5000E+00      8.0250E-01
          7.5000E+00      8.5000E+00      7.9250E-01
          8.0000E+00      8.5000E+00      7.8250E-01
          8.5000E+00      8.5000E+00      7.7250E-01
          9.0000E+00      8.5000E+00      7.6250E-01
          9.5000E+00      8.5000E+00      7.5250E-01
          1.0000E+01      8.5000E+00      7.5167E-01
          0.0000E+00      8.0000E+00      9.0833E-01
          5.0000E-01      8.0000E+00      9.0750E-01
          1.0000E+00      8.0000E+00      8.9750E-01
          1.5000E+00      8.0000E+00      8.8750E-01
          2.0000E+00      8.0000E+00      8.7750E-01
          2.5000E+00      8.0000E+00      8.6750E-01
          3.0000E+00      8.0000E+00      8.5750E-01
          3.5000E+00      8.0000E+00      8.4750E-01
          4.0000E+00      8.0000E+00      8.3750E-01
          4.5000E+00      8.0000E+00      8.2750E-01
          5.0000E+00      8.0000E+00      8.1750E-01
          5.5000E+00      8.0000E+00      8.0750E-01
          6.0000E+00      8.0000E+00      7.9750E-01
          6.5000E+00      8.0000E+00      7.8750E-01
          7.0000E+00      8.0000E+00      7.7750E-01
          7.5000E+00      8.0000E+00      7.6750E-01
          8.0000E+00      8.0000E+00      7.5750E-01
          8.5000E+00      8.0000E+00      7.4750E-01
          9.0000E+00      8.0000E+00      7.3750E-01
          9.5000E+00      8.0000E+00      7.2750E-01
          1.0000E+01      8.0000E+00      7.2667E-01
          0.0000E+00      7.5000E+00      8.8333E-01
          5.0000E-01      7.5000E+00      8.8250E-01
          1.0000E+00      7.5000E+00      8.7250E-01
          1.5000E+00      7.5000E+00      8.6250E-01
          2.0000E+00      7.5000E+00      8.5250E-01
          2.5000E+00      7.5000E+00      8.4250E-01
          3.0000E+00      7.5000E+00      8.3250E-01
          3.5000E+00      7.5000E+00      8.2250E-01
          4.0000E+00      7.5000E+00      8.1250E-01
          4.5000E+00      7.5000E+00      8.0250E-01
          5.0000E+00      7.5000E+00      7.9250E-01
          5.5000E+00      7.5000E+00      7.8250E-01
          6.0000E+00      7.5000E+00      7.7250E-01
          6.5000E+00      7.5000E+00      7.6250E-01
          7.0000E+00      7.5000E+00      7.5250E-01
          7.5000E+00      7.5000E+00      7.4250E-01
          8.0000E+00      7.5000E+00      7.3250E-01
          8.5000E+00      7.5000E+00      7.2250E-01
          9.0000E+00      7.5000E+00      7.1250E-01
          9.5000E+00      7.5000E+00      7.0250E-01
          1.0000E+01      7.5000E+00      7.0167E-01
          0.0000E+00      7.0000E+00      8.5833E-01
          5.0000E-01      7.0000E+00      8.5750E-01
          1.0000E+00      7.0000E+00      8.4750E-01
          1.5000E+00      7.0000E+00      8.3750E-01
          2.0000E+00      7.0000E+00      8.2750E-01
          2.5000E+00      7.0000E+00      8.1750E-01
          3.0000E+00      7.0000E+00      8.0750E-01
          3.5000E+00      7.0000E+00      7.9750E-01
          4.0000E+00      7.0000E+00      7.8750E-01
          4.5000E+00      7.0000E+00      7.7750E-01
          5.0000E+00      7.0000E+00      7.6750E-01
          5.5000E+00      7.0000E+00      7.5750E-01
          6.0000E+00      7.0000E+00      7.4750E-01
          6.5000E+00      7.0000E+00      7.3750E-01
          7.0000E+00      7.0000E+00      7.2750E-01
          7.5000E+00      7.0000E+00      7.1750E-01
          8.0000E+00      7.0000E+00      7.0750E-01
          8.5000E+00      7.0000E+00      6.9750E-01
          9.0000E+00      7.0000E+00      6.8750E-01
          9.5000E+00      7.0000E+00      6.7750E-01
          1.0000E+01      7.0000E+00      6.7667E-01
          0.0000E+00      6.5000E+00      8.3333E-01
          5.0000E-01      6.5000E+00      8.3250E-01
          1.0000E+00      6.5000E+00      8.2250E-01
          1.5000E+00      6.5000E+00      8.1250E-01
          2.0000E+00      6.5000E+00      8.0250E-01
          2.5000E+00      6.5000E+00      7.9250E-01
          3.0000E+00      6.5000E+00      7.8250E-01
          3.5000E+00      6.5000E+00      7.7250E-01
          4.0000E+00      6.5000E+00      7.6250E-01
          4.5000E+00      6.5000E+00      7.5250E-01
          5.0000E+00      6.5000E+00      7.4250E-01
          5.5000E+00      6.5000E+00      7.3250E-01
          6.0000E+00      6.5000E+00      7.2250E-01
          6.5000E+00      6.5000E+00      7.1250E-01
          7.0000E+00      6.5000E+00      7.0250E-01
          7.5000E+00      6.5000E+00      6.9250E-01
          8.0000E+00      6.5000E+00      6.8250E-01
          8.5000E+00      6.5000E+00      6.7250E-01
          9.0000E+00      6.5000E+00      6.6250E-01
          9.5000E+00      6.5000E+00      6.5250E-01
          1.0000E+01      6.5000E+00      6.5167E-01
          0.0000E+00      6.0000E+00      8.0833E-01
          5.0000E-01      6.0000E+00      8.0750E-01
          1.0000E+00      6.0000E+00      7.9750E-01
          1.5000E+00      6.0000E+00      7.8750E-01
          2.0000E+00      6.0000E+00      7.7750E-01
          2.5000E+00      6.0000E+00      7.6750E-01
          3.0000E+00      6.0000E+00      7.5750E-01
          3.5000E+00      6.0000E+00      7.4750E-01
          4.0000E+00      6.0000E+00      7.3750E-01
          4.5000E+00      6.0000E+00      7.2750E-01
          5.0000E+00      6.0000E+00      7.1750E-01
          5.5000E+00      6.0000E+00      7.0750E-01
          6.0000E+00      6.0000E+00      6.9750E-01
          6.5000E+00      6.0000E+00      6.8750E-01
          7.0000E+00      6.0000E+00      6.7750E-01
          7.5000E+00      6.0000E+00      6.6750E-01
          8.0000E+00      6.0000E+00      6.5750E-01
[...]
POINT_DATA     7056
SCALARS saturation float
LOOKUP_TABLE default
       0.6880277
       0.6897313
       0.6905942
       0.6911329
       0.6916520
       0.6921229
       0.6925419
       0.6929253
       0.6933154
       0.6937063
       0.6941025
       0.6945427
       0.6950506
       0.6956615
       0.6964321
       0.6974547
       0.6988370
       0.7007967
       0.7034438
       0.7099895
       0.7122600
       0.6913644
       0.6917359
       0.6938509
       0.6943034
       0.6948889
       0.6954414
       0.6959598
       0.6964659
       0.6969607
       0.6974720
       0.6980105
       0.6986146
       0.6993191
       0.7001686
       0.7012316
       0.7026146
       0.7044786
       0.7071334
       0.7109779
       0.7192148
       0.7194155
       0.6947572
       0.6955578
       0.6988452
       0.6998936
       0.7011433
       0.7022883
       0.7033614
       0.7043984
       0.7054125
       0.7064422
       0.7075188
       0.7087036
       0.7100633
       0.7116970
       0.7137535
       0.7164583
       0.7201800
       0.7254403
       0.7325890
       0.7442706
       0.7450549
       0.6980889
       0.6983460
       0.7025773
       0.7044191
       0.7063906
       0.7082197
       0.7099557
       0.7116472
       0.7133409
       0.7150940
       0.7169804
       0.7191034
       0.7215873
       0.7246013
       0.7283060
       0.7328771
       0.7386748
       0.7462147
       0.7561894
       0.7723580
       0.7732713
       0.7019512
       0.7019527
       0.7072142
       0.7099676
       0.7127937
       0.7155056
       0.7181723
       0.7208515
       0.7236039
       0.7264817
       0.7295199
       0.7327827
       0.7364157
       0.7406147
       0.7456293
       0.7517937
       0.7596331
       0.7707056
       0.7867709
       0.8091055
       0.8100043
       0.7063224
       0.7061536
       0.7124847
       0.7163959
       0.7204393
       0.7244480
       0.7284155
       0.7322633
       0.7360281
       0.7398166
       0.7437536
       0.7480019
       0.7527588
       0.7582983
       0.7651765
       0.7747226
       0.7869372
       0.8023005
       0.8218377
       0.8481813
       0.8489686
       0.7112522
       0.7110193
       0.7186890
       0.7242019
       0.7297786
       0.7350269
       0.7399858
       0.7447614
       0.7494851
       0.7543026
       0.7593979
       0.7651325
       0.7722782
       0.7808861
       0.7908876
       0.8028508
       0.8173967
       0.8348826
       0.8601649
       0.8943118
       0.8953534
       0.7170790
       0.7168584
       0.7262765
       0.7334045
       0.7401288
       0.7464446
       0.7525100
       0.7584898
       0.7646632
       0.7716564
       0.7794373
       0.7876871
       0.7966499
       0.8066854
       0.8182687
       0.8317353
       0.8494050
       0.8731613
       0.9029502
       0.9390331
       0.9393468
       0.7243120
       0.7240987
       0.7350307
       0.7434534
       0.7514374
       0.7591535
       0.7670531
       0.7758535
       0.7847374
       0.7935809
       0.8025225
       0.8118869
       0.8220341
       0.8331208
       0.8470484
       0.8648855
       0.8865599
       0.9127166
       0.9458479
       0.9789659
       0.9785007
       0.7327513
       0.7325575
       0.7447622
       0.7547210
       0.7645791
       0.7754784
       0.7864022
       0.7968407
       0.8068501
       0.8167444
       0.8267070
       0.8369001
       0.8496301
       0.8642975
       0.8810660
       0.9005491
       0.9225821
       0.9521271
       0.9950875
       1.0000000
       1.0000000
       0.7422396
       0.7422345
       0.7560131
       0.7685813
       0.7823980
       0.7955574
       0.8078254
       0.8194243
       0.8304396
       0.8415287
       0.8544958
       0.8680328
       0.8824637
       0.8981634
       0.9152004
       0.9351691
       0.9578112
       0.9808573
       1.0000000
       1.0000000
       1.0000000
       0.7534666
       0.7537700
       0.7705857
       0.7874158
       0.8032651
       0.8178879
       0.8313303
       0.8447099
       0.8590794
       0.8732245
       0.8873334
       0.9015859
       0.9160260
       0.9321225
       0.9499560
       0.9696381
       0.9863117
       1.0000000
       1.0000000
       1.0000000
       1.0000000
       0.7685095
       0.7690421
       0.7903341
       0.8095214
       0.8270933
       0.8434735
       0.8608011
       0.8772860
       0.8928543
       0.9075246
       0.9212743
       0.9361736
       0.9512331
       0.9672813
       0.9817526
       1.0000000
       1.0000000
       1.0000000
       1.0000000
       1.0000000
       1.0000000
       0.7900246
       0.7905573
       0.8143657
       0.8353624
       0.8568526
       0.8774135
       0.8964163
       0.9134345
       0.9288383
       0.9438808
       0.9585278
       0.9718467
       0.9830557
       0.9984865
       1.0000000
       1.0000000
       1.0000000
       1.0000000
       1.0000000
       1.0000000
       1.0000000
       0.8162885
       0.8170411
       0.8436335
       0.8703796
       0.8951062
       0.9162790
       0.9355494
       0.9537004
       0.9680905
       0.9792378
       0.9912138
       1.0000000
       1.0000000
       1.0000000
       1.0000000
       1.0000000
       1.0000000
       1.0000000
       1.0000000
       1.0000000
       1.0000000
       0.8502524
       0.8508559
       0.8844179
       0.9135348
       0.9392769
       0.9605631
       0.9765205
       0.9937850
       1.0000000
       1.0000000
       1.0000000
       1.0000000
       1.0000000
       1.0000000
       1.0000000
       1.0000000
       1.0000000
       1.0000000
       1.0000000
       1.0000000
       1.0000000
       0.8971988
       0.8978404
       0.9357708
       0.9632213
       0.9880570
       1.0000000
       1.0000000
       1.0000000
       1.0000000
       1.0000000
       1.0000000
       1.0000000
       1.0000000
       1.0000000
       1.0000000
       1.0000000
       1.0000000
       1.0000000
       1.0000000
       1.0000000
       1.0000000
       0.9540204
       0.9554517
       1.0000000
       1.0000000
       1.0000000
       1.0000000
       1.0000000
       1.0000000
       1.0000000
       1.0000000
       1.0000000
       1.0000000
       1.0000000
       1.0000000
       1.0000000
       1.0000000
       1.0000000
       1.0000000
       1.0000000
       1.0000000
       1.0000000
       1.0000000
       1.0000000
       1.0000000
       1.0000000
       1.0000000
       1.0000000
       1.0000000
       1.0000000
       1.0000000
       1.0000000
       1.0000000
       1.0000000
       1.0000000
       1.0000000
       1.0000000
       1.0000000
       1.0000000
       1.0000000
       1.0000000
       1.0000000
       1.0000000
       1.0000000
       1.0000000
       1.0000000
       1.0000000
       1.0000000
       1.0000000
       1.0000000
       1.0000000
       1.0000000
       1.0000000
       1.0000000
       1.0000000
       1.0000000
       1.0000000
       1.0000000
       1.0000000
       1.0000000
       1.0000000
       1.0000000
       1.0000000
       1.0000000
       1.0000000
       1.0000000
       1.0000000
       1.0000000
       1.0000000
       1.0000000
       1.0000000
       1.0000000
       1.0000000
       1.0000000
       1.0000000
       1.0000000
       1.0000000
       1.0000000
       1.0000000
       1.0000000
       1.0000000
       1.0000000
       1.0000000
       1.0000000
       1.0000000
       0.6981567
       0.6998390
       0.7007700
       0.7013508
       0.7019105
       0.7024184
       0.7028706
       0.7032847
       0.7037060
       0.7041284
       0.7045569
       0.7050331
       0.7055827
       0.7062442
       0.7070796
       0.7081896
       0.7096932
       0.7118268
       0.7147121
       0.7217960
       0.7239533
       0.7015842
       0.7016900
       0.7039657
       0.7044517
       0.7050816
       0.7056769
       0.7062360
       0.7067825
       0.7073176
       0.7078712
       0.7084551
       0.7091109
       0.7098771
       0.7108027
       0.7119634
       0.7134748
       0.7155088
       0.7183998
       0.7225817
       0.7314884
       0.7314171
       0.7052319
       0.7057897
       0.7093271
       0.7104563
       0.7118039
       0.7130413
       0.7142037
       0.7153294
       0.7164328
       0.7175546
       0.7187283
       0.7200196
       0.7215010
       0.7232801
       0.7255179
       0.7284589
       0.7325065
       0.7382589
       0.7461273
       0.7589381
       0.7595240
       0.7088204
       0.7087905
       0.7133492
       0.7153419
       0.7174787
       0.7194654
       0.7213516
       0.7231896
       0.7250301
       0.7269352
       0.7289850
       0.7312931
       0.7339968
       0.7372899
       0.7413651
       0.7464025
       0.7527934
       0.7611134
       0.7721281
       0.7898016
       0.7905252
       0.7129921
       0.7126866
       0.7183720
       0.7213598
       0.7244231
       0.7273635
       0.7302560
       0.7331654
       0.7361616
       0.7393104
       0.7426564
       0.7462559
       0.7502650
       0.7549002
       0.7604400
       0.7672527
       0.7759031
       0.7880387
       0.8058525
       0.8305964
       0.8314088
       0.7177326
       0.7172472
       0.7240943
       0.7283313
       0.7327129
       0.7370701
       0.7414134
       0.7456528
       0.7498061
       0.7539891
       0.7583384
       0.7630330
       0.7682920
       0.7744093
       0.7819695
       0.7924726
       0.8060297
       0.8231003
       0.8448249
       0.8738698
       0.8745897
       0.7230839
       0.7225332
       0.7308269
       0.7368108
       0.7429154
       0.7486949
       0.7541642
       0.7594355
       0.7646520
       0.7699747
       0.7755984
       0.7818992
       0.7897368
       0.7992937
       0.8104105
       0.8237117
       0.8398869
       0.8593077
       0.8871290
       0.9240585
       0.9250962
       0.7294092
       0.7288770
       0.7390956
       0.7469257
       0.7543319
       0.7612969
       0.7679897
       0.7745867
       0.7813714
       0.7890291
       0.7976641
       0.8068364
       0.8168086
       0.8279756
       0.8408578
       0.8558217
       0.8752987
       0.9013323
       0.9332400
       0.9694620
       0.9697281
       0.7372900
       0.7367803
       0.7487460
       0.7580217
       0.7668225
       0.7753267
       0.7839886
       0.7936808
       0.8035466
       0.8133842
       0.8233380
       0.8337561
       0.8450423
       0.8573582
       0.8727009
       0.8923029
       0.9158190
       0.9434266
       0.9757917
       0.9996562
       0.9995072
       0.7465687
       0.7461111
       0.7595000
       0.7704725
       0.7813069
       0.7932848
       0.8054053
       0.8170155
       0.8281523
       0.8391561
       0.8502344
       0.8615349
       0.8755474
       0.8916648
       0.9099078
       0.9307167
       0.9534260
       0.9813352
       1.0000000
       1.0000000
       1.0000000
       0.7570214
       0.7567996
       0.7719385
       0.7857129
       0.8009902
       0.8156062
       0.8292485
       0.8421430
       0.8543826
       0.8666013
       0.8809038
       0.8957477
       0.9114185
       0.9282051
       0.9459669
       0.9658084
       0.9861030
       1.0000000
       1.0000000
       1.0000000
       1.0000000
       0.7693949
       0.7695502
       0.7879658
       0.8066017
       0.8242028
       0.8404513
       0.8553822
       0.8701268
       0.8859478
       0.9014072
       0.9166584
       0.9318183
       0.9468151
       0.9628762
       0.9794629
       0.9948682
       1.0000000
       1.0000000
       1.0000000
       1.0000000
       1.0000000
       0.7859334
       0.7863496
       0.8098929
       0.8311924
       0.8507016
       0.8687809
       0.8878512
       0.9058277
       0.9225701
       0.9380371
       0.9521272
       0.9667787
       0.9805737
       0.9932908
       1.0000000
       1.0000000
       1.0000000
       1.0000000
       1.0000000
       1.0000000
       1.0000000
       0.8097722
       0.8102328
       0.8366123
       0.8598993
       0.8835474
       0.9059834
       0.9263684
       0.9441610
       0.9596690
       0.9739974
       0.9866928
       0.9962485
       1.0000000
       1.0000000
       1.0000000
       1.0000000
       1.0000000
       1.0000000
       1.0000000
       1.0000000
       1.0000000
       0.8389066
       0.8396579
       0.8690360
       0.8983711
       0.9249924
       0.9470898
       0.9661940
       0.9826975
       0.9938473
       0.9997343
       1.0000000
       1.0000000
       1.0000000
       1.0000000
       1.0000000
       1.0000000
       1.0000000
       1.0000000
       1.0000000
       1.0000000
       1.0000000
       0.8764442
       0.8770577
       0.9136052
       0.9442962
       0.9697452
       0.9883246
       0.9987217
       1.0000000
       1.0000000
       1.0000000
       1.0000000
       1.0000000
       1.0000000
       1.0000000
       1.0000000
       1.0000000
       1.0000000
       1.0000000
       1.0000000
       1.0000000
       1.0000000
       0.9273070
       0.9279971
       0.9664547
       0.9903654
       1.0000000
       1.0000000
       1.0000000
       1.0000000
       1.0000000
       1.0000000
       1.0000000
       1.0000000
       1.0000000
       1.0000000
       1.0000000
       1.0000000
       1.0000000
       1.0000000
       1.0000000
       1.0000000
       1.0000000
       0.9830118
       0.9842013
       1.0000000
       1.0000000
       1.0000000
       1.0000000
       1.0000000
       1.0000000
       1.0000000
       1.0000000
       1.0000000
       1.0000000
       1.0000000
       1.0000000
       1.0000000
       1.0000000
       1.0000000
       1.0000000
       1.0000000
       1.0000000
       1.0000000
       1.0000000
       1.0000000
       1.0000000
       1.0000000
       1.0000000
       1.0000000
       1.0000000
       1.0000000
       1.0000000
       1.0000000
       1.0000000
       1.0000000
       1.0000000
       1.0000000
       1.0000000
       1.0000000
       1.0000000
       1.0000000
       1.0000000
       1.0000000
       1.0000000
       1.0000000
       1.0000000
       1.0000000
       1.0000000
       1.0000000
       1.0000000
       1.0000000
       1.0000000
       1.0000000
       1.0000000
       1.0000000
       1.0000000
       1.0000000
       1.0000000
       1.0000000
       1.0000000
       1.0000000
       1.0000000
       1.0000000
       1.0000000
       1.0000000
       1.0000000
       1.0000000
       1.0000000
       1.0000000
       1.0000000
       1.0000000
       1.0000000
       1.0000000
       1.0000000
       1.0000000
       1.0000000
       1.0000000
       1.0000000
       1.0000000
       1.0000000
       1.0000000
       1.0000000
       1.0000000
       1.0000000
       1.0000000
       1.0000000
       0.7161697
       0.7176736
       0.7187784
       0.7194635
       0.7201210
       0.7207191
       0.7212538
       0.7217464
       0.7222458
       0.7227491
       0.7232617
       0.7238323
       0.7244927
       0.7252907
       0.7263049
       0.7276640
       0.7295326
       0.7321972
       0.7358171
       0.7441231
       0.7457165
       0.7196734
       0.7189374
       0.7215572
       0.7221163
       0.7228423
       0.7235345
       0.7241895
       0.7248339
       0.7254692
       0.7261317
       0.7268361
       0.7276326
       0.7285717
       0.7297186
       0.7311743
       0.7330810
       0.7356232
       0.7391797
       0.7442664
       0.7545918
       0.7537006
       0.7238784
       0.7236180
       0.7276724
       0.7289818
       0.7305428
       0.7319964
       0.7333795
       0.7347369
       0.7360848
       0.7374678
       0.7389198
       0.7405128
       0.7423335
       0.7445085
       0.7472254
       0.7507685
       0.7556218
       0.7626943
       0.7727254
       0.7885399
       0.7884927
       0.7280163
       0.7270845
       0.7323297
       0.7346910
       0.7372391
       0.7396400
       0.7419219
       0.7441415
       0.7463606
       0.7486523
       0.7511116
       0.7538784
       0.7571298
       0.7611568
       0.7663368
       0.7728014
       0.7809657
       0.7915793
       0.8055723
       0.8264503
       0.8266079
       0.7329030
       0.7316650
       0.7383009
       0.7418978
       0.7455380
       0.7490267
       0.7524545
       0.7559117
       0.7595078
       0.7633851
       0.7676651
       0.7723153
       0.7774823
       0.7834398
       0.7905539
       0.7992745
       0.8101814
       0.8247443
       0.8472988
       0.8780425
       0.8787594
       0.7386057
       0.7371826
       0.7451877
       0.7501939
       0.7553406
       0.7605216
       0.7658793
       0.7713170
       0.7766684
       0.7820620
       0.7876647
       0.7936941
       0.8004302
       0.8081831
       0.8174707
       0.8302673
       0.8475088
       0.8690984
       0.8962902
       0.9305502
       0.9312198
       0.7450499
       0.7435819
       0.7532036
       0.7602774
       0.7678078
       0.7751889
       0.7822040
       0.7889637
       0.7956330
       0.8024227
       0.8095260
       0.8172526
       0.8266325
       0.8388510
       0.8530451
       0.8698942
       0.8901802
       0.9140605
       0.9461106
       0.9831359
       0.9840231
       0.7525939
       0.7512069
       0.7631911
       0.7730627
       0.7824930
       0.7913685
       0.7998683
       0.8081894
       0.8165291
       0.8256280
       0.8366448
       0.8484005
       0.8611325
       0.8752885
       0.8914225
       0.9098784
       0.9326740
       0.9615057
       0.9906319
       1.0000000
       1.0000000
       0.7621399
       0.7608713
       0.7755973
       0.7873723
       0.7985071
       0.8091754
       0.8196692
       0.8315306
       0.8441289
       0.8567128
       0.8694029
       0.8825402
       0.8966277
       0.9117614
       0.9296765
       0.9518667
       0.9759081
       0.9971262
       1.0000000
       1.0000000
       1.0000000
       0.7740624
       0.7729495
       0.7895013
       0.8033108
       0.8166434
       0.8311622
       0.8465570
       0.8613699
       0.8754874
       0.8892851
       0.9030426
       0.9167553
       0.9329971
       0.9512060
       0.9702586
       0.9887374
       1.0000000
       1.0000000
       1.0000000
       1.0000000
       1.0000000
       0.7875129
       0.7867541
       0.8054373
       0.8220649
       0.8411497
       0.8596919
       0.8769348
       0.8930462
       0.9081455
       0.9224954
       0.9391493
       0.9556399
       0.9717510
       0.9867877
       0.9983457
       1.0000000
       1.0000000
       1.0000000
       1.0000000
       1.0000000
       1.0000000
       0.8032281
       0.8030849
       0.8250993
       0.8485348
       0.8707276
       0.8910303
       0.9094200
       0.9267090
       0.9448850
       0.9616397
       0.9767382
       0.9896058
       0.9987096
       1.0000000
       1.0000000
       1.0000000
       1.0000000
       1.0000000
       1.0000000
       1.0000000
       1.0000000
       0.8234900
       0.8237350
       0.8530286
       0.8797153
       0.9038140
       0.9252171
       0.9470694
       0.9662217
       0.9820783
       0.9939690
       1.0000000
       1.0000000
       1.0000000
       1.0000000
       1.0000000
       1.0000000
       1.0000000
       1.0000000
       1.0000000
       1.0000000
       1.0000000
       0.8537071
       0.8540937
       0.8866831
       0.9151225
       0.9423807
       0.9664403
       0.9853266
       0.9975072
       1.0000000
       1.0000000
       1.0000000
       1.0000000
       1.0000000
       1.0000000
       1.0000000
       1.0000000
       1.0000000