# vtk DataFile Version 2.0
3D Unstructured Grid of Linear Triangles
ASCII
DATASET UNSTRUCTURED_GRID
FIELD FieldData  1
TIME 1 1 double
        3600.00000
POINTS     7056 float
          0.0000E+00      1.0000E+01      1.0000E+00
          5.0000E-01      1.0000E+01      9.9333E-01
          1.0000E+00      1.0000E+01      9.8333E-01
          1.5000E+00      1.0000E+01      9.7333E-01
          2.0000E+00      1.0000E+01      9.6333E-01
          2.5000E+00      1.0000E+01      9.5333E-01
          3.0000E+00      1.0000E+01      9.4333E-01
          3.5000E+00      1.0000E+01      9.3333E-01
          4.0000E+00      1.0000E+01      9.2333E-01
          4.5000E+00      1.0000E+01      9.1333E-01
          5.0000E+00      1.0000E+01      9.0333E-01
          5.5000E+00      1.0000E+01      8.9333E-01
          6.0000E+00      1.0000E+01      8.8333E-01
          6.5000E+00      1.0000E+01      8.7333E-01
          7.0000E+00      1.0000E+01      8.6333E-01
          7.5000E+00      1.0000E+01      8.5333E-01
          8.0000E+00      1.0000E+01      8.4333E-01
          8.5000E+00      1.0000E+01      8.3333E-01
          9.0000E+00      1.0000E+01      8.2333E-01
          9.5000E+00      1.0000E+01      8.1333E-01
          1.0000E+01      1.0000E+01      8.1000E-01
          0.0000E+00      9.5000E+00      9.8333E-01
          5.0000E-01      9.5000E+00      9.8250E-01
          1.0000E+00      9.5000E+00      9.7250E-01
          1.5000E+00      9.5000E+00      9.6250E-01
          2.0000E+00      9.5000E+00      9.5250E-01
          2.5000E+00      9.5000E+00      9.4250E-01
          3.0000E+00      9.5000E+00      9.3250E-01
          3.5000E+00      9.5000E+00      9.2250E-01
          4.0000E+00      9.5000E+00      9.1250E-01
          4.5000E+00      9.5000E+00      9.0250E-01
          5.0000E+00      9.5000E+00      8.9250E-01
          5.5000E+00      9.5000E+00      8.8250E-01
          6.0000E+00      9.5000E+00      8.7250E-01
          6.5000E+00      9.5000E+00      8.6250E-01
          7.0000E+00      9.5000E+00      8.5250E-01
          7.5000E+00      9.5000E+00      8.4250E-01
          8.0000E+00      9.5000E+00      8.3250E-01
          8.5000E+00      9.5000E+00      8.2250E-01
          9.0000E+00      9.5000E+00      8.1250E-01
          9.5000E+00      9.5000E+00      8.0250E-01
          1.0000E+01      9.5000E+00      8.0167E-01
          0.0000E+00      9.0000E+00      9.5833E-01
          5.0000E-01      9.0000E+00      9.5750E-01
          1.0000E+00      9.0000E+00      9.4750E-01
          1.5000E+00      9.0000E+00      9.3750E-01
          2.0000E+00      9.0000E+00      9.2750E-01
          2.5000E+00      9.0000E+00      9.1750E-01
          3.0000E+00      9.0000E+00      9.0750E-01
          3.5000E+00      9.0000E+00      8.9750E-01
          4.0000E+00      9.0000E+00      8.8750E-01
          4.5000E+00      9.0000E+00      8.7750E-01
          5.0000E+00      9.0000E+00      8.6750E-01
          5.5000E+00      9.0000E+00      8.5750E-01
          6.0000E+00      9.0000E+00      8.4750E-01
          6.5000E+00      9.0000E+00      8.3750E-01
          7.0000E+00      9.0000E+00      8.2750E-01
          7.5000E+00      9.0000E+00      8.1750E-01
          8.0000E+00      9.0000E+00      8.0750E-01
          8.5000E+00      9.0000E+00      7.9750E-01
          9.0000E+00      9.0000E+00      7.8750E-01
          9.5000E+00      9.0000E+00      7.7750E-01
          1.0000E+01      9.0000E+00      7.7667E-01
          0.0000E+00      8.5000E+00      9.3333E-01
          5.0000E-01      8.5000E+00      9.3250E-01
          1.0000E+00      8.5000E+00      9.2250E-01
          1.5000E+00      8.5000E+00      9.1250E-01
          2.0000E+00      8.5000E+00      9.0250E-01
          2.5000E+00      8.5000E+00      8.9250E-01
          3.0000E+00      8.5000E+00      8.8250E-01
          3.5000E+00      8.5000E+00      8.7250E-01
          4.0000E+00      8.5000E+00      8.6250E-01
          4.5000E+00      8.5000E+00      8.5250E-01
          5.0000E+00      8.5000E+00      8.4250E-01
          5.5000E+00      8.5000E+00      8.3250E-01
          6.0000E+00      8.5000E+00      8.2250E-01
          6.5000E+00      8.5000E+00      8.1250E-01
          7.0000E+00      8.5000E+00      8.0250E-01
          7.5000E+00      8.5000E+00      7.9250E-01
          8.0000E+00      8.5000E+00      7.8250E-01
          8.5000E+00      8.5000E+00      7.7250E-01
          9.0000E+00      8.5000E+00      7.6250E-01
          9.5000E+00      8.5000E+00      7.5250E-01
          1.0000E+01      8.5000E+00      7.5167E-01
          0.0000E+00      8.0000E+00      9.0833E-01
          5.0000E-01      8.0000E+00      9.0750E-01
          1.0000E+00      8.0000E+00      8.9750E-01
          1.5000E+00      8.0000E+00      8.8750E-01
          2.0000E+00      8.0000E+00      8.7750E-01
          2.5000E+00      8.0000E+00      8.6750E-01
          3.0000E+00      8.0000E+00      8.5750E-01
          3.5000E+00      8.0000E+00      8.4750E-01
          4.0000E+00      8.0000E+00      8.3750E-01
          4.5000E+00      8.0000E+00      8.2750E-01
          5.0000E+00      8.0000E+00      8.1750E-01
          5.5000E+00      8.0000E+00      8.0750E-01
          6.0000E+00      8.0000E+00      7.9750E-01
          6.5000E+00      8.0000E+00      7.8750E-01
          7.0000E+00      8.0000E+00      7.7750E-01
          7.5000E+00      8.0000E+00      7.6750E-01
          8.0000E+00      8.0000E+00      7.5750E-01
          8.5000E+00      8.0000E+00      7.4750E-01
          9.0000E+00      8.0000E+00      7.3750E-01
          9.5000E+00      8.0000E+00      7.2750E-01
          1.0000E+01      8.0000E+00      7.2667E-01
          0.0000E+00      7.5000E+00      8.8333E-01
          5.0000E-01      7.5000E+00      8.8250E-01
          1.0000E+00      7.5000E+00      8.7250E-01
          1.5000E+00      7.5000E+00      8.6250E-01
          2.0000E+00      7.5000E+00      8.5250E-01
          2.5000E+00      7.5000E+00      8.4250E-01
          3.0000E+00      7.5000E+00      8.3250E-01
          3.5000E+00      7.5000E+00      8.2250E-01
          4.0000E+00      7.5000E+00      8.1250E-01
          4.5000E+00      7.5000E+00      8.0250E-01
          5.0000E+00      7.5000E+00      7.9250E-01
          5.5000E+00      7.5000E+00      7.8250E-01
          6.0000E+00      7.5000E+00      7.7250E-01
          6.5000E+00      7.5000E+00      7.6250E-01
          7.0000E+00      7.5000E+00      7.5250E-01
          7.5000E+00      7.5000E+00      7.4250E-01
          8.0000E+00      7.5000E+00      7.3250E-01
          8.5000E+00      7.5000E+00      7.2250E-01
          9.0000E+00      7.5000E+00      7.1250E-01
          9.5000E+00      7.5000E+00      7.0250E-01
          1.0000E+01      7.5000E+00      7.0167E-01
          0.0000E+00      7.0000E+00      8.5833E-01
          5.0000E-01      7.0000E+00      8.5750E-01
          1.0000E+00      7.0000E+00      8.4750E-01
          1.5000E+00      7.0000E+00      8.3750E-01
          2.0000E+00      7.0000E+00      8.2750E-01
          2.5000E+00      7.0000E+00      8.1750E-01
          3.0000E+00      7.0000E+00      8.0750E-01
          3.5000E+00      7.0000E+00      7.9750E-01
          4.0000E+00      7.0000E+00      7.8750E-01
          4.5000E+00      7.0000E+00      7.7750E-01
          5.0000E+00      7.0000E+00      7.6750E-01
          5.5000E+00      7.0000E+00      7.5750E-01
          6.0000E+00      7.0000E+00      7.4750E-01
          6.5000E+00      7.0000E+00      7.3750E-01
          7.0000E+00      7.0000E+00      7.2750E-01
          7.5000E+00      7.0000E+00      7.1750E-01
          8.0000E+00      7.0000E+00      7.0750E-01
          8.5000E+00      7.0000E+00      6.9750E-01
          9.0000E+00      7.0000E+00      6.8750E-01
          9.5000E+00      7.0000E+00      6.7750E-01
          1.0000E+01      7.0000E+00      6.7667E-01
          0.0000E+00      6.5000E+00      8.3333E-01
          5.0000E-01      6.5000E+00      8.3250E-01
          1.0000E+00      6.5000E+00      8.2250E-01
          1.5000E+00      6.5000E+00      8.1250E-01
          2.0000E+00      6.5000E+00      8.0250E-01
          2.5000E+00      6.5000E+00      7.9250E-01
          3.0000E+00      6.5000E+00      7.8250E-01
          3.5000E+00      6.5000E+00      7.7250E-01
          4.0000E+00      6.5000E+00      7.6250E-01
          4.5000E+00      6.5000E+00      7.5250E-01
          5.0000E+00      6.5000E+00      7.4250E-01
          5.5000E+00      6.5000E+00      7.3250E-01
          6.0000E+00      6.5000E+00      7.2250E-01
          6.5000E+00      6.5000E+00      7.1250E-01
          7.0000E+00      6.5000E+00      7.0250E-01
          7.5000E+00      6.5000E+00      6.9250E-01
          8.0000E+00      6.5000E+00      6.8250E-01
          8.5000E+00      6.5000E+00      6.7250E-01
          9.0000E+00      6.5000E+00      6.6250E-01
          9.5000E+00      6.5000E+00      6.5250E-01
          1.0000E+01      6.5000E+00      6.5167E-01
          0.0000E+00      6.0000E+00      8.0833E-01
          5.0000E-01      6.0000E+00      8.0750E-01
          1.0000E+00      6.0000E+00      7.9750E-01
          1.5000E+00      6.0000E+00      7.8750E-01
          2.0000E+00      6.0000E+00      7.7750E-01
          2.5000E+00      6.0000E+00      7.6750E-01
          3.0000E+00      6.0000E+00      7.5750E-01
          3.5000E+00      6.0000E+00      7.4750E-01
          4.0000E+00      6.0000E+00      7.3750E-01
          4.5000E+00      6.0000E+00      7.2750E-01
          5.0000E+00      6.0000E+00      7.1750E-01
          5.5000E+00      6.0000E+00      7.0750E-01
          6.0000E+00      6.0000E+00      6.9750E-01
          6.5000E+00      6.0000E+00      6.8750E-01
          7.0000E+00      6.0000E+00      6.7750E-01
          7.5000E+00      6.0000E+00      6.6750E-01
          8.0000E+00      6.0000E+00      6.5750E-01
[...]
POINT_DATA     7056
SCALARS saturation float
LOOKUP_TABLE default
       0.6557572
       0.6571778
       0.6577369
       0.6581239
       0.6585180
       0.6588901
       0.6592389
       0.6595733
       0.6599140
       0.6602629
       0.6606216
       0.6610148
       0.6614576
       0.6619739
       0.6626014
       0.6634005
       0.6644535
       0.6659216
       0.6677629
       0.6726385
       0.6738084
       0.6582599
       0.6589457
       0.6605389
       0.6607338
       0.6611115
       0.6614724
       0.6618218
       0.6621735
       0.6625260
       0.6628980
       0.6632959
       0.6637446
       0.6642704
       0.6649068
       0.6657070
       0.6667509
       0.6681544
       0.6701152
       0.6727756
       0.6785374
       0.6784815
       0.6605535
       0.6615271
       0.6639142
       0.6644276
       0.6652276
       0.6659600
       0.6666598
       0.6673511
       0.6680448
       0.6687689
       0.6695467
       0.6704184
       0.6714300
       0.6726485
       0.6741717
       0.6761410
       0.6787629
       0.6823205
       0.6869921
       0.6950022
       0.6958620
       0.6628097
       0.6631219
       0.6660720
       0.6669942
       0.6681880
       0.6693184
       0.6704334
       0.6715555
       0.6727121
       0.6739370
       0.6752760
       0.6767935
       0.6785695
       0.6807176
       0.6833787
       0.6866992
       0.6908702
       0.6962276
       0.7032356
       0.7146642
       0.7155676
       0.6653673
       0.6653046
       0.6688937
       0.6703437
       0.6720500
       0.6737184
       0.6753963
       0.6771185
       0.6789259
       0.6808718
       0.6830195
       0.6854396
       0.6882060
       0.6914292
       0.6952953
       0.7000660
       0.7061770
       0.7144473
       0.7251281
       0.7399537
       0.7408276
       0.6682292
       0.6679350
       0.6722050
       0.6743374
       0.6767280
       0.6791282
       0.6815925
       0.6841527
       0.6868363
       0.6896683
       0.6927165
       0.6960960
       0.6999620
       0.7045518
       0.7102738
       0.7175660
       0.7264331
       0.7373050
       0.7507031
       0.7692322
       0.7703000
       0.6715564
       0.6711652
       0.6762256
       0.6792587
       0.6825700
       0.6859391
       0.6893538
       0.6928242
       0.6964252
       0.7002595
       0.7044785
       0.7093279
       0.7151139
       0.7218138
       0.7295582
       0.7386997
       0.7495856
       0.7628333
       0.7817856
       0.8069228
       0.8083067
       0.6755965
       0.6752043
       0.6812695
       0.6854609
       0.6898441
       0.6942169
       0.6986614
       0.7032845
       0.7082536
       0.7138030
       0.7198999
       0.7264744
       0.7337174
       0.7418695
       0.7511761
       0.7621272
       0.7771068
       0.7957360
       0.8189364
       0.8482756
       0.8494754
       0.6807311
       0.6804026
       0.6876598
       0.6930545
       0.6986077
       0.7043138
       0.7103869
       0.7169682
       0.7237546
       0.7307441
       0.7380760
       0.7459258
       0.7544600
       0.7643184
       0.7771603
       0.7922957
       0.8103770
       0.8318075
       0.8597957
       0.8965145
       0.8979777
       0.6872662
       0.6870640
       0.6954997
       0.7024000
       0.7097781
       0.7177133
       0.7257028
       0.7336743
       0.7417138
       0.7499352
       0.7584864
       0.7685145
       0.7803039
       0.7934634
       0.8084841
       0.8257362
       0.8460796
       0.8727993
       0.9056252
       0.9444470
       0.9450431
       0.6953687
       0.6953847
       0.7054991
       0.7149268
       0.7246268
       0.7341762
       0.7435750
       0.7528604
       0.7622984
       0.7733368
       0.7850935
       0.7975728
       0.8110926
       0.8258071
       0.8421301
       0.8629058
       0.8876955
       0.9169648
       0.9523564
       0.9848100
       0.9842064
       0.7061079
       0.7063640
       0.7192989
       0.7309745
       0.7424078
       0.7535051
       0.7646888
       0.7773147
       0.7900553
       0.8030323
       0.8163810
       0.8300306
       0.8448351
       0.8623142
       0.8820498
       0.9046110
       0.9304435
       0.9624648
       1.0000000
       1.0000000
       1.0000000
       0.7213445
       0.7217257
       0.7367160
       0.7504254
       0.7638397
       0.7787887
       0.7936337
       0.8083087
       0.8226305
       0.8364157
       0.8518270
       0.8681726
       0.8855133
       0.9040805
       0.9236739
       0.9460534
       0.9714953
       1.0000000
       1.0000000
       1.0000000
       1.0000000
       0.7403788
       0.7410188
       0.7581592
       0.7758904
       0.7938798
       0.8114757
       0.8281371
       0.8442025
       0.8610961
       0.8779140
       0.8949804
       0.9119456
       0.9286406
       0.9466273
       0.9659162
       0.9825865
       1.0000000
       1.0000000
       1.0000000
       1.0000000
       1.0000000
       0.7648083
       0.7655555
       0.7883792
       0.8103108
       0.8308740
       0.8507253
       0.8706769
       0.8900884
       0.9079073
       0.9241591
       0.9409410
       0.9582063
       0.9717897
       0.9846714
       1.0000000
       1.0000000
       1.0000000
       1.0000000
       1.0000000
       1.0000000
       1.0000000
       0.8004065
       0.8012664
       0.8280833
       0.8535634
       0.8785386
       0.9012632
       0.9215833
       0.9421024
       0.9583843
       0.9716914
       0.9839564
       1.0000000
       1.0000000
       1.0000000
       1.0000000
       1.0000000
       1.0000000
       1.0000000
       1.0000000
       1.0000000
       1.0000000
       0.8472909
       0.8477014
       0.8804806
       0.9105945
       0.9374963
       0.9576486
       0.9748737
       0.9983055
       1.0000000
       1.0000000
       1.0000000
       1.0000000
       1.0000000
       1.0000000
       1.0000000
       1.0000000
       1.0000000
       1.0000000
       1.0000000
       1.0000000
       1.0000000
       0.9147537
       0.9140590
       0.9466606
       0.9775060
       1.0000000
       1.0000000
       1.0000000
       1.0000000
       1.0000000
       1.0000000
       1.0000000
       1.0000000
       1.0000000
       1.0000000
       1.0000000
       1.0000000
       1.0000000
       1.0000000
       1.0000000
       1.0000000
       1.0000000
       1.0000000
       1.0000000
       1.0000000
       1.0000000
       1.0000000
       1.0000000
       1.0000000
       1.0000000
       1.0000000
       1.0000000
       1.0000000
       1.0000000
       1.0000000
       1.0000000
       1.0000000
       1.0000000
       1.0000000
       1.0000000
       1.0000000
       1.0000000
       1.0000000
       1.0000000
       1.0000000
       1.0000000
       1.0000000
       1.0000000
       1.0000000
       1.0000000
       1.0000000
       1.0000000
       1.0000000
       1.0000000
       1.0000000
       1.0000000
       1.0000000
       1.0000000
       1.0000000
       1.0000000
       1.0000000
       1.0000000
       1.0000000
       1.0000000
       1.0000000
       1.0000000
       1.0000000
       1.0000000
       1.0000000
       1.0000000
       1.0000000
       1.0000000
       1.0000000
       1.0000000
       1.0000000
       1.0000000
       1.0000000
       1.0000000
       1.0000000
       1.0000000
       1.0000000
       1.0000000
       1.0000000
       1.0000000
       1.0000000
       0.6637206
       0.6651285
       0.6657231
       0.6661343
       0.6665540
       0.6669506
       0.6673231
       0.6676807
       0.6680454
       0.6684195
       0.6688048
       0.6692274
       0.6697038
       0.6702594
       0.6709344
       0.6717934
       0.6729247
       0.6745004
       0.6764791
       0.6816970
       0.6827475
       0.6662678
       0.6668041
       0.6685025
       0.6687109
       0.6691147
       0.6695011
       0.6698759
       0.6702535
       0.6706326
       0.6710329
       0.6714615
       0.6719448
       0.6725107
       0.6731954
       0.6740561
       0.6751784
       0.6766863
       0.6787908
       0.6816464
       0.6878118
       0.6875535
       0.6687053
       0.6695484
       0.6720924
       0.6726428
       0.6734993
       0.6742848
       0.6750360
       0.6757784
       0.6765234
       0.6773013
       0.6781371
       0.6790740
       0.6801611
       0.6814704
       0.6831066
       0.6852213
       0.6880376
       0.6918660
       0.6969141
       0.7055494
       0.7062649
       0.6711149
       0.6712546
       0.6744019
       0.6753914
       0.6766695
       0.6778804
       0.6790752
       0.6802783
       0.6815190
       0.6828336
       0.6842711
       0.6859006
       0.6878086
       0.6901182
       0.6929859
       0.6965755
       0.7010887
       0.7068869
       0.7144720
       0.7268137
       0.7275788
       0.6738545
       0.6735918
       0.6774241
       0.6789769
       0.6808026
       0.6825894
       0.6843875
       0.6862342
       0.6881737
       0.6902640
       0.6925751
       0.6951867
       0.6981806
       0.7016711
       0.7058592
       0.7110272
       0.7176402
       0.7266041
       0.7382687
       0.7544750
       0.7552505
       0.6769225
       0.6764089
       0.6809708
       0.6832537
       0.6858130
       0.6883851
       0.6910295
       0.6937829
       0.6966787
       0.6997431
       0.7030440
       0.7067057
       0.7108953
       0.7158657
       0.7220572
       0.7299954
       0.7396888
       0.7516044
       0.7663439
       0.7866493
       0.7876437
       0.6804896
       0.6798703
       0.6852801
       0.6885291
       0.6920807
       0.6957062
       0.6993950
       0.7031496
       0.7070486
       0.7112018
       0.7157702
       0.7210178
       0.7273014
       0.7346240
       0.7431022
       0.7531326
       0.7651104
       0.7796803
       0.8005879
       0.8283860
       0.8297944
       0.6848231
       0.6842019
       0.6906935
       0.6951997
       0.6999310
       0.7046587
       0.7094678
       0.7144713
       0.7198467
       0.7258599
       0.7325173
       0.7397136
       0.7476549
       0.7566120
       0.7668600
       0.7789081
       0.7954158
       0.8160415
       0.8417656
       0.8741394
       0.8753680
       0.6903388
       0.6897863
       0.6975875
       0.7034159
       0.7094196
       0.7155908
       0.7221565
       0.7293106
       0.7367293
       0.7443871
       0.7524362
       0.7610712
       0.7704752
       0.7812994
       0.7954730
       0.8122299
       0.8322762
       0.8560396
       0.8868498
       0.9264895
       0.9279940
       0.6973926
       0.6969846
       0.7060796
       0.7135401
       0.7215123
       0.7301364
       0.7388683
       0.7476040
       0.7564344
       0.7654862
       0.7749074
       0.7859130
       0.7989492
       0.8135236
       0.8301791
       0.8493137
       0.8717797
       0.9010496
       0.9361079
       0.9745255
       0.9750531
       0.7061595
       0.7059988
       0.7169147
       0.7271261
       0.7377116
       0.7481691
       0.7584905
       0.7687148
       0.7790924
       0.7912431
       0.8042531
       0.8180811
       0.8330751
       0.8493926
       0.8674240
       0.8902625
       0.9171334
       0.9478427
       0.9815712
       1.0000000
       1.0000000
       0.7177855
       0.7178910
       0.7319291
       0.7446881
       0.7572286
       0.7694412
       0.7817153
       0.7956508
       0.8097531
       0.8241363
       0.8389432
       0.8540754
       0.8704098
       0.8896146
       0.9110629
       0.9350553
       0.9612947
       0.9898030
       1.0000000
       1.0000000
       1.0000000
       0.7343757
       0.7346389
       0.7510167
       0.7660779
       0.7808115
       0.7973039
       0.8137320
       0.8299969
       0.8458784
       0.8611459
       0.8781137
       0.8960168
       0.9147899
       0.9344989
       0.9545847
       0.9760076
       0.9960461
       1.0000000
       1.0000000
       1.0000000
       1.0000000
       0.7552148
       0.7557970
       0.7746279
       0.7941385
       0.8140320
       0.8335275
       0.8519930
       0.8697244
       0.8882899
       0.9065992
       0.9249040
       0.9426736
       0.9595117
       0.9765253
       0.9923439
       1.0000000
       1.0000000
       1.0000000
       1.0000000
       1.0000000
       1.0000000
       0.7820645
       0.7827899
       0.8079833
       0.8322664
       0.8550450
       0.8769242
       0.8987588
       0.9197019
       0.9384974
       0.9550720
       0.9713200
       0.9864578
       0.9962204
       1.0000000
       1.0000000
       1.0000000
       1.0000000
       1.0000000
       1.0000000
       1.0000000
       1.0000000
       0.8214166
       0.8223040
       0.8519868
       0.8800703
       0.9073058
       0.9315616
       0.9525103
       0.9724127
       0.9866026
       0.9961578
       1.0000000
       1.0000000
       1.0000000
       1.0000000
       1.0000000
       1.0000000
       1.0000000
       1.0000000
       1.0000000
       1.0000000
       1.0000000
       0.8732585
       0.8736727
       0.9094319
       0.9413277
       0.9681033
       0.9860088
       0.9979420
       1.0000000
       1.0000000
       1.0000000
       1.0000000
       1.0000000
       1.0000000
       1.0000000
       1.0000000
       1.0000000
       1.0000000
       1.0000000
       1.0000000
       1.0000000
       1.0000000
       0.9456488
       0.9449185
       0.9765725
       0.9990491
       1.0000000
       1.0000000
       1.0000000
       1.0000000
       1.0000000
       1.0000000
       1.0000000
       1.0000000
       1.0000000
       1.0000000
       1.0000000
       1.0000000
       1.0000000
       1.0000000
       1.0000000
       1.0000000
       1.0000000
       1.0000000
       1.0000000
       1.0000000
       1.0000000
       1.0000000
       1.0000000
       1.0000000
       1.0000000
       1.0000000
       1.0000000
       1.0000000
       1.0000000
       1.0000000
       1.0000000
       1.0000000
       1.0000000
       1.0000000
       1.0000000
       1.0000000
       1.0000000
       1.0000000
       1.0000000
       1.0000000
       1.0000000
       1.0000000
       1.0000000
       1.0000000
       1.0000000
       1.0000000
       1.0000000
       1.0000000
       1.0000000
       1.0000000
       1.0000000
       1.0000000
       1.0000000
       1.0000000
       1.0000000
       1.0000000
       1.0000000
       1.0000000
       1.0000000
       1.0000000
       1.0000000
       1.0000000
       1.0000000
       1.0000000
       1.0000000
       1.0000000
       1.0000000
       1.0000000
       1.0000000
       1.0000000
       1.0000000
       1.0000000
       1.0000000
       1.0000000
       1.0000000
       1.0000000
       1.0000000
       1.0000000
       1.0000000
       1.0000000
       0.6781352
       0.6793717
       0.6800386
       0.6804924
       0.6809634
       0.6814134
       0.6818416
       0.6822578
       0.6826860
       0.6831300
       0.6835930
       0.6841054
       0.6846865
       0.6853647
       0.6861849
       0.6872215
       0.6885780
       0.6904482
       0.6928083
       0.6987701
       0.6993166
       0.6806077
       0.6806451
       0.6825702
       0.6828123
       0.6832791
       0.6837304
       0.6841723
       0.6846209
       0.6850756
       0.6855584
       0.6860780
       0.6866630
       0.6873453
       0.6881672
       0.6891973
       0.6905344
       0.6923197
       0.6947887
       0.6981299
       0.7051448
       0.7042357
       0.6833250
       0.6837374
       0.6866094
       0.6872580
       0.6882517
       0.6891732
       0.6900593
       0.6909363
       0.6918171
       0.6927367
       0.6937257
       0.6948336
       0.6961173
       0.6976590
       0.6995774
       0.7020465
       0.7053272
       0.7098190
       0.7158730
       0.7259940
       0.7261457
       0.6860844
       0.6857209
       0.6892909
       0.6904593
       0.6919392
       0.6933443
       0.6947317
       0.6961311
       0.6975770
       0.6991106
       0.7007882
       0.7026888
       0.7049145
       0.7076159
       0.7110035
       0.7153189
       0.7207553
       0.7277090
       0.7367418
       0.7510293
       0.7513002
       0.6892899
       0.6884448
       0.6928008
       0.6946019
       0.6966969
       0.6987549
       0.7008296
       0.7029638
       0.7052099
       0.7076401
       0.7103484
       0.7134545
       0.7170726
       0.7212957
       0.7263496
       0.7325560
       0.7403930
       0.7509990
       0.7653241
       0.7850499
       0.7855257
       0.6928876
       0.6917218
       0.6969045
       0.6995316
       0.7024599
       0.7054141
       0.7084661
       0.7116770
       0.7151154
       0.7188117
       0.7227996
       0.7272202
       0.7322627
       0.7381893
       0.7454789
       0.7550875
       0.7670367
       0.7817882
       0.8001962
       0.8246120
       0.8253894
       0.6970475
       0.6957456
       0.7018852
       0.7056120
       0.7096943
       0.7139308
       0.7183356
       0.7228472
       0.7275339
       0.7325172
       0.7379621
       0.7441510
       0.7516558
       0.7607085
       0.7712098
       0.7836815
       0.7986554
       0.8166330
       0.8424401
       0.8766426
       0.8781753
       0.7020825
       0.7007802
       0.7081559
       0.7134026
       0.7190229
       0.7246734
       0.7304193
       0.7363742
       0.7427130
       0.7498138
       0.7580063
       0.7669394
       0.7768162
       0.7880015
       0.8008422
       0.8157309
       0.8360354
       0.8617252
       0.8934872
       0.9317254
       0.9330400
       0.7085121
       0.7072974
       0.7163453
       0.7232971
       0.7304375
       0.7377439
       0.7454390
       0.7540250
       0.7631922
       0.7727084
       0.7827507
       0.7935600
       0.8053491
       0.8185471
       0.8361066
       0.8570036
       0.8818602
       0.9108867
       0.9463920
       0.9854513
       0.9866704
       0.7169693
       0.7159521
       0.7266195
       0.7354641
       0.7447918
       0.7551336
       0.7658912
       0.7767337
       0.7877464
       0.7990898
       0.8108491
       0.8241540
       0.8404432
       0.8586226
       0.8792969
       0.9027749
       0.9293381
       0.9616708
       0.9928035
       1.0000000
       1.0000000
       0.7275537
       0.7268735
       0.7396147
       0.7516601
       0.7646116
       0.7775381
       0.7903778
       0.8031694
       0.8159498
       0.8308228
       0.8470824
       0.8643164
       0.8828976
       0.9028824
       0.9242725
       0.9501971
       0.9774534
       0.9991535
       1.0000000
       1.0000000
       1.0000000
       0.7414118
       0.7410919
       0.7577860
       0.7734307
       0.7889535
       0.8041836
       0.8191152
       0.8363837
       0.8539692
       0.8718481
       0.8901359
       0.9085686
       0.9277714
       0.9494913
       0.9717242
       0.9920916
       1.0000000
       1.0000000
       1.0000000
       1.0000000
       1.0000000
       0.7616309
       0.7615723
       0.7815064
       0.8001814
       0.8182101
       0.8385918
       0.8590058
       0.8791493
       0.8986466
       0.9170542
       0.9366608
       0.9564149
       0.9752766
       0.9917000
       1.0000000
       1.0000000
       1.0000000
       1.0000000
       1.0000000
       1.0000000
       1.0000000
       0.7874104
       0.7878611
       0.8110417
       0.8349024
       0.8595453
       0.8836059
       0.9061269
       0.9270283
       0.9480721
       0.9673423
       0.9842775
       0.9968089
       1.0000000
       1.0000000
       1.0000000
       1.0000000
       1.0000000